//TJADB Project
TITLE:BORN ON DREAM! ～HANABI☆NIGHT～
TITLEJA:BORN ON DREAM! ～HANABI☆NIGHT～
SUBTITLE:--Senkou☆HANABI Dan/THE iDOLM@STER Million Live! Theater Days
BPM:152
WAVE:BORN ON DREAM! HANABI NIGHT.ogg
OFFSET:-1.747
DEMOSTART:66.047

COURSE:Oni
LEVEL:8
BALLOON:10
SCOREINIT:390
SCOREDIFF:100


#START


#BARLINEOFF
#SCROLL 2
000000000000000000000000000000000000400000000000,

#GOGOSTART
#BARLINEON
#SCROLL 1
100000001000100000001000100000002020200000002000,
100000001000100000001000200000001000200000002000,
100000001000100000001000100000002020200000002000,
100000001000100000001000200000000000400000000000,
100000001000100000001000100000002020200000002000,
100000001000100000001000200000001000200000002000,
100010001000200020002000100010001000200020002000,
#SCROLL 1.4
#BARLINEOFF
100000001000000000004000300000000000000000000000,

#GOGOEND
#BARLINEON
#SCROLL 1
100010001000200000002000100010001000200000002000,
100000001000200000002000100000000000300000000000,
200000002000100000001000200000002000100000001000,
200000002000100000001000200000000000400000000000,
100010001000200000002000100010001000200000002000,
100000001000200000002000100000000000300000000000,
500000000000000000000000000000000008000000000000,
#BARLINEOFF
#SCROLL 1.4
300000003000300000004000400000000000000000000000,
#BARLINEON
#SCROLL 1
100010001000200000002000100010001000200000002000,
100000001000200000002000100000000000300000000000,
200000002000100000001000200000002000100000001000,
200000002000100000001000200000000000400000000000,
100010001000200000002000100010001000200000002000,
100000001000200000002000100000000000300000000000,
500000000000000000000000000000000008000000000000,
#BARLINEOFF
#SCROLL 1.4
300000003000300000004000400000000000000000000000,
#BARLINEON
#SCROLL 1
100000001000200000001000100000001000200000000000,
100010001000200000001000100000001000200000000000,
100000000000100000002000100000002020200000002000,
100000000000100000000000100000002020200000002000,
100000001000200000001000100000001000200000000000,
100010001000200000001000100000001000200000000000,
100000000000100000002000100000002020200000002000,
100000000000100000000000100020002000100000000000,
100000001000200020001000100000001000200020001000,
100000001000200020001000200020002000100010001000,
202000000000202000000000101000000000101000000000,
202000000000202000000000101000000000101000000000,
500000000000000000000000000000000000000008000000,
000000100000000000001000200000002020200000002000,
100000001000100000001000100000001000100010001000,
#BARLINEOFF
#SCROLL 1.4
100000001000100000003000400000000000000000000000,

#GOGOSTART
#BARLINEON
#SCROLL 1
100000001000200000001000100000001000200000001000,
100000001000100000001000100010001000200000002000,
100000001000200000002000100000002020200000002000,
100010001000200020002000100010001000200020002000,
100000001000200000001000100000001000200000002000,
100000002000100000002000100010001000200020002020,
200000002000100000002020200000002000100000000000,
300000000000300000000000400000001010100010001000,
100000001000200000001000100000001000200000001000,
100000001000100000001000100010001000200000002000,
100000001000200000002000100000002020200000002000,
100010001000200020002000100010001000200020002000,
100000001000200000001000100000001000200000002000,
100000002000100000002000100010001000200020001010,
100000000000200000001010100000000000200000001010,
100000002020200000001010100000002020200000001010,
100000002020200000001010100000002020200000002000,
100000001000100000001000200000002020200000002000,
100000001000200000002000100000000000400000000000,

#GOGOEND
100000000000100010001000102000000000102000000000,
100000001000200000002000100000002000100000002000,
100000002020200000000000100000002020200000000000,
#BARLINEOFF
#SCROLL 1.4
300000003000000000004000300000000000200000000000,
#BARLINEON
#SCROLL 1
100000000000200000000000200000000000200000002000,
100000002000200000002000100020002000100020002000,
100000001000200020002000100000001000200020002000,
700000000000000000000000800000000000100000001000,
200000000000

#GOGOSTART
#SCROLL 2
300000000000
#SCROLL 1
300000002020200000002000,
100000002000100000002000100010001000200020002020,
200000002000100000002020200000002000100000000000,
300000000000300000000000400000001010100010001000,
100000001000200000001010100000001000200000001000,
100000001010100000001000100010001000200000002000,
100000001000200000001010100000001000200000002000,
100020002000100020002000100020002000100020002000,
100000001000200000001000100000002020200000002000,
100000002000100000002000100010001000200020001010,
100000000000200000001010100000000000200000001010,
100000002020200000001010100000002020200000001010,
100000002020200000001010100000001010200000002000,
100000001000100000001000200000002020200000002000,
100000001000200000002000100000000000400000002000,
100000001000100000001000200000002020200000002000,
100000001000200000002000100000000000
#SCROLL 2
400000000000,

#GOGOEND


#END


COURSE:Hard
LEVEL:5
BALLOON:7
SCOREINIT:400
SCOREDIFF:110


#START


#BARLINEOFF
000000000000000000000000000000000000400000000000,

#GOGOSTART
#BARLINEON
100000001000100000001000100000000000000000001000,
100000001000100000001000100000000000300000000000,
100000001000100000001000100000000000000000001000,
100000001000100000001000200000000000400000000000,
100000001000100000001000100000000000000000001000,
100000001000100000001000100000000000300000000000,
600000000000000000000000000000000008000000000000,
#BARLINEOFF
#SCROLL 1.4
300000003000000000003000300000000000000000000000,

#GOGOEND
#BARLINEON
#SCROLL 1
100000001000100000001000100000001000100000001000,
100000000000000000000000300000000000300000000000,
100000002000200000001000100000002000200000001000,
100000000000000000000000400000000000400000000000,
100000001000100000001000100000001000100000001000,
100000000000000000000000300000000000300000000000,
500000000000000000000000000000000008000000000000,
#BARLINEOFF
#SCROLL 1.4
300000000000300000000000300000000000000000000000,
#BARLINEON
#SCROLL 1
100000001000100000001000100000001000100000001000,
100000000000000000000000300000000000300000000000,
100000002000200000001000100000002000200000001000,
100000000000000000000000400000000000400000000000,
100000001000100000001000100000001000100000001000,
100000000000000000000000300000000000300000000000,
500000000000000000000000000000000008000000000000,
#BARLINEOFF
#SCROLL 1.4
300000000000300000000000300000000000000000000000,
#BARLINEON
#SCROLL 1
100000001000100000001000100000000000400000000000,
100010001000100000001000100000000000400000000000,
200000000000200000000000100000000000100000000000,
200000000000200000000000100000000000000000000000,
100000001000100000001000100000000000400000000000,
100010001000100000001000100000000000400000000000,
200000000000200000000000100000000000100000000000,
200000000000200000000000100000000000000000000000,
100000001000100000001000100000001000100000001000,
100000001000100000001000200000000000100000000000,
200000000000200000000000100000000000100000000000,
200000000000200000000000100000000000100000000000,
500000000000000000000000000000000000000008000000,
000000100000000000001000200000000000200000000000,
100000000000100000001000100000000000000000000000,
#BARLINEOFF
#SCROLL 1.4
300000003000300000003000300000000000000000000000,

#GOGOSTART
#BARLINEON
#SCROLL 1
100000000000200000000000100000000000200000001000,
100000001000100000001000100000000000400000000000,
100000000000200000000000100000000000200000001000,
100000001000100000001000100000001000100000000000,
100000000000200000000000100000000000200000001000,
100000001000100000001000100000000000000000000000,
100000000000300000000000100000000000300000000000,
300000000000300000000000400000000000000000000000,
100000000000200000000000100000000000200000001000,
100000001000100000001000100000000000400000000000,
100000000000200000000000100000000000200000001000,
100000001000100000001000100000001000100000000000,
100000000000200000000000100000000000200000001000,
100000001000100000001000100000000000200000001000,
100000000000200000001000100000000000200000001000,
100000002000200000001000100000002000200000001000,
100000002000200000001000100000002000200000002000,
100000001000100000001000200000000000000000002000,
100000001000100000001000100000000000400000000000,

#GOGOEND
000000000000000000000000000000000000000000000000,
000000000000000000002000100000002000100000002000,
100000001000200000000000100000001000200000000000,
#BARLINEOFF
#SCROLL 1.4
300000003000000000003000300000000000000000000000,
#BARLINEON
#SCROLL 1
100000000000200000000000200000000000200000002000,
200000002000200000002000200000000000000000000000,
100000000000200000000000100000000000200000002000,
700000000000000000000000800000000000100000000000,
200000000000

#GOGOSTART
300000000000300000000000200000001000,
100000001000100000001000100000000000000000000000,
100000000000300000000000100000000000300000000000,
300000000000300000000000400000000000000000000000,
100000000000200000000000100000000000200000001000,
100000001000100000001000100000000000400000000000,
100000000000200000000000100000000000200000001000,
100000001000100000001000100000001000100000000000,
100000000000200000000000100000000000200000001000,
100000001000100000001000100000000000200000001000,
100000000000200000001000100000000000200000001000,
100000002000200000001000100000002000200000001000,
100000002000200000001000100000000000400000002000,
100000001000100000001000200000000000000000002000,
100000001000100000001000100000000000000000002000,
100000001000100000001000200000000000000000002000,
100000001000100000001000100000000000400000000000,

#GOGOEND


#END


COURSE:Normal
LEVEL:5
BALLOON:5
SCOREINIT:500
SCOREDIFF:120


#START


#BARLINEOFF
000000000000000000000000000000000000400000000000,

#GOGOSTART
#BARLINEON
100000000000100000000000100000000000000000000000,
100000000000100000000000300000000000300000000000,
100000000000100000000000100000000000000000000000,
100000000000100000000000400000000000400000000000,
100000000000100000000000100000000000000000000000,
100000000000100000000000300000000000300000000000,
600000000000000000000000000000000008000000000000,
#BARLINEOFF
300000003000000000000000300000000000000000000000,

#GOGOEND
#BARLINEON
100000000000000000000000100000000000000000000000,
100000000000000000000000300000000000300000000000,
100000000000000000000000100000000000000000000000,
100000000000000000000000400000000000400000000000,
100000000000000000000000100000000000000000000000,
100000000000000000000000300000000000300000000000,
500000000000000000000000000000000008000000000000,
#BARLINEOFF
300000000000300000000000300000000000000000000000,
#BARLINEON
100000000000100000000000100000000000100000000000,
100000000000000000000000300000000000300000000000,
100000000000100000000000100000000000100000000000,
100000000000000000000000400000000000400000000000,
100000000000100000000000100000000000100000000000,
100000000000000000000000300000000000300000000000,
500000000000000000000000000000000008000000000000,
#BARLINEOFF
300000000000300000000000300000000000000000000000,
#BARLINEON
100000000000100000000000100000000000000000000000,
100000000000100000000000100000000000000000000000,
200000000000200000000000100000000000100000000000,
200000000000200000000000100000000000000000000000,
100000000000100000000000100000000000000000000000,
100000000000100000000000100000000000000000000000,
200000000000200000000000100000000000100000000000,
200000000000200000000000100000000000000000000000,
100000000000300000000000100000000000300000000000,
100000000000300000000000100000000000000000000000,
200000000000200000000000100000000000100000000000,
200000000000200000000000100000000000100000000000,
500000000000000000000000000000000000000008000000,
000000100000000000000000100000000000100000000000,
100000000000100000000000100000000000000000000000,
#BARLINEOFF
300000000000300000000000300000000000000000000000,

#GOGOSTART
#BARLINEON
100000000000200000000000100000000000200000000000,
100000000000100000000000100000000000000000000000,
100000000000100000000000200000000000200000000000,
600000000000000000000000000000000008000000000000,
100000000000200000000000100000000000200000000000,
100000000000100000000000100000000000000000000000,
100000000000300000000000100000000000300000000000,
300000000000300000000000400000000000000000000000,
100000000000200000000000100000000000200000000000,
100000000000100000000000100000000000000000000000,
100000000000100000000000200000000000200000000000,
600000000000000000000000000000000008000000000000,
100000000000200000000000100000000000200000000000,
100000000000100000000000100000000000000000000000,
100000000000000000000000100000000000000000000000,
600000000008000000000000600000000008000000000000,
600000000008000000000000600000000008000000000000,
100000000000100000000000200000000000000000000000,
100000000000100000000000100000000000400000000000,

#GOGOEND
000000000000000000000000000000000000000000000000,
000000000000000000000000300000000000300000000000,
000000000000100000000000000000000000100000000000,
#BARLINEOFF
300000003000000000000000300000000000000000000000,
#BARLINEON
100000000000200000000000200000000000200000000000,
100000000000200000000000200000000000000000000000,
100000000000200000000000100000000000200000000000,
700000000000000000000000800000000000000000000000,
000000000000

#GOGOSTART
300000000000300000000000000000000000,
100000000000100000000000100000000000000000000000,
100000000000300000000000100000000000300000000000,
300000000000300000000000400000000000000000000000,
100000000000200000000000100000000000200000000000,
100000000000100000000000100000000000000000000000,
100000000000100000000000200000000000200000000000,
600000000000000000000000000000000008000000000000,
100000000000200000000000100000000000200000000000,
100000000000100000000000100000000000000000000000,
100000000000000000000000100000000000000000000000,
600000000008000000000000600000000008000000000000,
600000000008000000000000300000000000400000000000,
100000000000100000000000200000000000000000000000,
100000000000100000000000200000000000000000000000,
200000000000200000000000100000000000000000000000,
100000000000100000000000100000000000400000000000,

#GOGOEND


#END


COURSE:Easy
LEVEL:3
BALLOON:5,4
SCOREINIT:500
SCOREDIFF:140


#START


#BARLINEOFF
000000000000000000000000000000000000400000000000,

#GOGOSTART
#BARLINEON
000000000000100000000000000000000000100000000000,
000000000000100000000000300000000000300000000000,
000000000000100000000000000000000000100000000000,
000000000000100000000000400000000000400000000000,
000000000000100000000000000000000000100000000000,
000000000000100000000000300000000000300000000000,
600000000000000000000000000008000000000000000000,
#BARLINEOFF
300000000000000000000000300000000000000000000000,

#GOGOEND
#BARLINEON
000000000000000000000000000000000000000000000000,
000000000000000000000000300000000000300000000000,
000000000000000000000000000000000000000000000000,
000000000000000000000000400000000000400000000000,
000000000000000000000000000000000000000000000000,
000000000000000000000000300000000000300000000000,
500000000000000000000000000008000000000000000000,
#BARLINEOFF
300000000000300000000000300000000000000000000000,
#BARLINEON
000000000000000000000000000000000000000000000000,
000000000000000000000000300000000000300000000000,
000000000000000000000000000000000000000000000000,
000000000000000000000000400000000000400000000000,
000000000000000000000000000000000000000000000000,
000000000000000000000000300000000000300000000000,
500000000000000000000000000008000000000000000000,
#BARLINEOFF
300000000000300000000000300000000000000000000000,
#BARLINEON
000000000000000000000000000000000000300000000000,
000000000000000000000000000000000000300000000000,
000000000000000000000000000000000000000000000000,
200000000000200000000000200000000000000000000000,
000000000000000000000000000000000000300000000000,
000000000000000000000000000000000000300000000000,
000000000000000000000000000000000000000000000000,
200000000000200000000000200000000000000000000000,
000000000000300000000000000000000000300000000000,
000000000000300000000000000000000000000000000000,
500000000008000000000000500000000008000000000000,
500000000008000000000000500000000008000000000000,
500000000000000000000000000000000000000008000000,
000000700000000000000000000000000000800000000000,
100000000000100000000000100000000000000000000000,
#BARLINEOFF
300000000000000000000000300000000000000000000000,

#GOGOSTART
#BARLINEON
100000000000000000000000100000000000000000000000,
100000000000100000000000100000000000000000000000,
100000000000000000000000100000000000000000000000,
600000000000000000000000000008000000000000000000,
100000000000000000000000100000000000000000000000,
100000000000100000000000100000000000000000000000,
000000000000300000000000000000000000300000000000,
300000000000300000000000400000000000000000000000,
100000000000000000000000100000000000000000000000,
100000000000100000000000100000000000000000000000,
100000000000000000000000100000000000000000000000,
600000000000000000000000000008000000000000000000,
100000000000000000000000100000000000000000000000,
100000000000100000000000100000000000000000000000,
100000000000000000000000100000000000000000000000,
600000000008000000000000600000000008000000000000,
600000000008000000000000600000000008000000000000,
100000000000000000000000100000000000000000000000,
100000000000100000000000100000000000400000000000,

#GOGOEND
000000000000000000000000000000000000000000000000,
000000000000000000000000300000000000300000000000,
000000000000000000000000000000000000000000000000,
#BARLINEOFF
300000000000000000000000300000000000000000000000,
#BARLINEON
100000000000000000000000200000000000000000000000,
100000000000200000000000200000000000000000000000,
100000000000000000000000200000000000000000000000,
700000000000000000000000800000000000000000000000,
000000000000

#GOGOSTART
300000000000300000000000000000000000,
100000000000100000000000100000000000000000000000,
000000000000300000000000000000000000300000000000,
300000000000300000000000400000000000000000000000,
100000000000000000000000100000000000000000000000,
100000000000100000000000100000000000000000000000,
100000000000000000000000100000000000000000000000,
600000000000000000000000000008000000000000000000,
100000000000000000000000100000000000000000000000,
100000000000100000000000100000000000000000000000,
100000000000000000000000100000000000000000000000,
600000000008000000000000600000000008000000000000,
600000000008000000000000600000000008000000000000,
100000000000000000000000100000000000000000000000,
100000000000100000000000200000000000000000000000,
100000000000000000000000100000000000000000000000,
100000000000100000000000100000000000400000000000,

#GOGOEND


#END

